LAMMPS data file via write_data, version 16 Mar 2018, timestep = 100000

8874 atoms
11 atom types
9108 bonds
11 bond types
16164 angles
19 angle types
21816 dihedrals
25 dihedral types
5796 impropers
3 improper types

-2.3558285787867170e+01 4.3558285787160465e+01 xlo xhi
2.1949555526941914e+01 4.8050444473059052e+01 ylo yhi
4.3899111053883829e+01 9.6100888946118104e+01 zlo zhi

Masses

1 12.011
2 1.008
3 12.011
4 1.008
5 12.011
6 15.999
7 14.007
8 1.008
9 15.999
10 12.011
11 12.011

Pair Coeffs # lj/cut/coul/long

1 0.066 3.5
2 0.03 2.5
3 0.07 3.55
4 0.03 2.42
5 0.105 3.75
6 0.21 2.96
7 0.17 3.25
8 0 0
9 0.17 3
10 0.066 3.5
11 0.066 3.5

Bond Coeffs # harmonic

1 570 1.229
2 214 1.327
3 490 1.335
4 268 1.529
5 320 1.41
6 340 1.09
7 317 1.51
8 434 1.01
9 427 1.381
10 469 1.4
11 367 1.08

Angle Coeffs # harmonic

1 83 123.4
2 80 122.9
3 81 111.4
4 58.35 112.7
5 50 109.5
6 33 107.8
7 35 109.5
8 37.5 110.7
9 35 109.5
10 40 109.5
11 60 109.5
12 83 116.9
13 35 119.8
14 35 119.8
15 50 121.9
16 63 120
17 70 120
18 70 120
19 35 120

Dihedral Coeffs # opls

1 0 5.124 0 0
2 -2 5 0 0
3 0 4.9 0 0
4 0 6.089 0 0
5 0 4.9 0 0
6 1.3 -0.05 0.2 0
7 0 0 0.3 0
8 0 0 0.468 0
9 0 0 0.3 0
10 -1.22 -0.126 0.422 0
11 0.65 -0.25 0.67 0
12 0 0 0.76 0
13 0 0 0.198 0
14 0 0 0 0
15 0 0 0 0
16 0 2.1 0 0
17 0 2.1 0 0
18 0 7.25 0 0
19 0 7.25 0 0
20 0 7.25 0 0
21 0 7.25 0 0
22 0 7.25 0 0
23 0 7.25 0 0
24 0 7.25 0 0
25 1.3 -0.05 0.2 0

Improper Coeffs # harmonic

1 10.5 180
2 1 180
3 1.1 180

Atoms # full

1355 3 1 -1.2000000000000000e-01 -1.9248930375112476e+01 2.4630526524275862e+01 4.8405051169862844e+01 0 0 0
1356 3 1 -1.2000000000000000e-01 -1.9808635643940214e+01 2.3816041932676068e+01 4.7201918908549906e+01 0 0 0
1363 3 2 5.9999999999999998e-02 -1.9270136184186775e+01 2.4202308449512486e+01 4.6287155569941170e+01 0 0 0
1362 3 2 5.9999999999999998e-02 -1.9577238752012246e+01 2.2758755668434564e+01 4.7347351725013461e+01 0 0 0
1357 3 11 1.9000000000000000e-01 -2.1356448563026657e+01 2.3862586214297259e+01 4.6914480629176552e+01 0 0 0
1366 3 9 -3.3000000000000002e-01 -2.1647533211634332e+01 2.3107703371330633e+01 4.5804467604578512e+01 0 0 0
1364 3 2 5.9999999999999998e-02 -2.1790996570257796e+01 2.4833699477276831e+01 4.6933890585361084e+01 0 0 0
1361 3 2 5.9999999999999998e-02 -1.9387540892192764e+01 2.4118383763039393e+01 4.9261040784558659e+01 0 0 0
1353 3 9 -3.3000000000000002e-01 -1.7403955933006802e+01 2.5821280825882095e+01 4.9250909227066927e+01 0 0 0
1281 3 2 5.9999999999999998e-02 -2.2502261063994119e+01 2.6269497345734322e+01 4.5599497063745993e+01 0 0 0
1354 3 11 1.9000000000000000e-01 -1.7847030602580517e+01 2.5170261276914516e+01 4.8088013423407453e+01 0 0 0
1360 3 2 5.9999999999999998e-02 -1.9967300346125889e+01 2.5534226753196801e+01 4.8486521406267947e+01 0 0 0
1359 3 2 5.9999999999999998e-02 -1.7945385555200165e+01 2.5872999535689583e+01 4.7222222381329146e+01 0 0 0
1367 3 11 1.9000000000000000e-01 -2.2986650861100191e+01 2.3222592637116055e+01 4.5256464450110130e+01 0 0 0
1365 3 2 5.9999999999999998e-02 -2.1800327317496365e+01 2.3322255492994536e+01 4.7722602064451713e+01 0 0 0
1266 3 1 -1.2000000000000000e-01 -2.2256507306363833e+01 2.7232333300785712e+01 4.5292898678784347e+01 0 0 0
1271 3 3 -1.1500000000000000e-01 -1.8473017840499203e+01 2.7798755558915929e+01 4.5120762376967583e+01 0 0 0
1267 3 3 -1.1500000000000000e-01 -2.0878693776334377e+01 2.7300034524877361e+01 4.4720000621989257e+01 0 0 0
1272 3 3 -1.1500000000000000e-01 -1.9842159247616486e+01 2.7879106962198605e+01 4.5545774640579651e+01 0 0 0
1344 3 11 1.9000000000000000e-01 -1.6058426013840002e+01 2.6270936477475438e+01 4.9184434463852760e+01 0 0 0
1388 3 2 5.9999999999999998e-02 -1.8332560255106721e+01 2.2184664514269642e+01 4.5307296262618003e+01 0 0 0
1350 3 2 5.9999999999999998e-02 -1.6306612732247146e+01 2.8039710857020690e+01 5.0287008953684236e+01 0 0 0
1275 3 6 -5.0000000000000000e-01 -1.5731902831062266e+01 2.7096439848598408e+01 4.5360715218553302e+01 0 0 0
1274 3 5 5.0000000000000000e-01 -1.5656771874566285e+01 2.7453113631107030e+01 4.4173723541595045e+01 0 0 0
1282 3 2 5.9999999999999998e-02 -2.2288890599662693e+01 2.7918270967632328e+01 4.6106832668375148e+01 0 0 0
1358 3 2 5.9999999999999998e-02 -1.7089591393717257e+01 2.4421748025948148e+01 4.7932586036763972e+01 0 0 0
1263 3 3 -1.1500000000000000e-01 -2.3221413650985784e+01 2.7731906563325882e+01 4.4189150327675364e+01 0 0 0
6951 15 3 -1.1500000000000000e-01 -2.2591851569139294e+01 2.2118071983050491e+01 4.9953413831103873e+01 0 0 0
1286 3 4 1.1500000000000000e-01 -2.0116550924517451e+01 2.8240744833188536e+01 4.6519623945401484e+01 0 0 0
1285 3 4 1.1500000000000000e-01 -1.7725909126103414e+01 2.8314781706648130e+01 4.5779616026028421e+01 0 0 0
1349 3 2 5.9999999999999998e-02 -1.6608152697962225e+01 2.8249663311550538e+01 4.8488886121599194e+01 0 0 0
1343 3 1 -1.2000000000000000e-01 -1.5934728712410497e+01 2.7785151324618695e+01 4.9266573163256055e+01 0 0 0
1352 3 2 5.9999999999999998e-02 -1.5605410942132972e+01 2.5785591337614825e+01 4.8269656708351135e+01 0 0 0
1351 3 2 5.9999999999999998e-02 -1.5396085324382634e+01 2.5768729974193729e+01 4.9909435998309348e+01 0 0 0
4019 9 4 1.1500000000000000e-01 -2.1369039783186810e+01 2.7904266665794189e+01 4.8828022144564848e+01 0 0 0
1368 3 1 -1.2000000000000000e-01 -2.3114088841404520e+01 2.2365184811929396e+01 4.4012352611783740e+01 0 0 0
1371 3 2 5.9999999999999998e-02 -2.3229888318418325e+01 2.4274239435061489e+01 4.5095930487775895e+01 0 0 0
1389 3 2 5.9999999999999998e-02 -1.7119824642294500e+01 2.2140193831870729e+01 4.4043730799792840e+01 0 0 0
1294 3 2 5.9999999999999998e-02 -1.3259607667997031e+01 2.8192571931029782e+01 4.5015396536356690e+01 0 0 0
1189 3 1 -1.2000000000000000e-01 -1.2546911958570366e+01 2.4007708865701566e+01 4.8513039900897340e+01 0 0 0
1188 3 1 -1.2000000000000000e-01 -1.1693711936359504e+01 2.4504023118628972e+01 4.9746819777717612e+01 0 0 0
1187 3 11 1.9000000000000000e-01 -1.0269339350168066e+01 2.5035793977973924e+01 4.9373229459566929e+01 0 0 0
1208 3 2 5.9999999999999998e-02 -1.2890031505203618e+01 2.4874159366117720e+01 4.8081902353810946e+01 0 0 0
1205 3 2 5.9999999999999998e-02 -9.7410434804812009e+00 2.4208475849830677e+01 4.8895659121059886e+01 0 0 0
1209 3 2 5.9999999999999998e-02 -1.3550779295559014e+01 2.3529290591610302e+01 4.8854915758928065e+01 0 0 0
1186 3 9 -3.3000000000000002e-01 -1.0520774459343645e+01 2.6086324039183541e+01 4.8462697841837659e+01 0 0 0
1185 3 6 -5.0000000000000000e-01 -8.4584648587019995e+00 2.6603207628584300e+01 4.7662299020041218e+01 0 0 0
1184 3 5 5.0000000000000000e-01 -9.6975486198977450e+00 2.6789761041374291e+01 4.7709516878076968e+01 0 0 0
1206 3 2 5.9999999999999998e-02 -1.2309844988877897e+01 2.5257532831838368e+01 5.0260724035771673e+01 0 0 0
1190 3 11 1.9000000000000000e-01 -1.1771051636547279e+01 2.3112591685405423e+01 4.7524349399937044e+01 0 0 0
1348 3 2 5.9999999999999998e-02 -1.3967671681797999e+01 2.7924029278003630e+01 4.8252420135984266e+01 0 0 0
1201 3 4 1.1500000000000000e-01 -8.2298734980171133e+00 2.7642930167424783e+01 4.5082873726410277e+01 0 0 0
1183 3 7 -5.0000000000000000e-01 -1.0347004497661082e+01 2.7769151373221721e+01 4.7097381008960163e+01 0 0 0
1211 3 2 5.9999999999999998e-02 -1.0868695527165309e+01 2.3619636765129897e+01 4.7178061860941355e+01 0 0 0
1204 3 2 5.9999999999999998e-02 -9.7495921218241488e+00 2.5350261321604023e+01 5.0248538965198449e+01 0 0 0
1293 3 2 5.9999999999999998e-02 -1.2679617217957393e+01 2.6742583669604969e+01 4.3955816434297816e+01 0 0 0
6451 14 2 5.9999999999999998e-02 -8.0991522741028028e+00 2.3449217331459682e+01 4.7277050838315141e+01 0 0 0
1342 3 1 -1.2000000000000000e-01 -1.4486297624009946e+01 2.8308443606183388e+01 4.9135130440292940e+01 0 0 0
1347 3 2 5.9999999999999998e-02 -1.3891826542126159e+01 2.7842471355955862e+01 4.9924147409017067e+01 0 0 0
6434 14 9 -3.3000000000000002e-01 -6.9148986354488038e+00 2.2733950318771015e+01 4.9599528522815689e+01 0 0 0
1203 3 8 2.9999999999999999e-01 -1.1246387039110802e+01 2.7738161946119916e+01 4.7411048612869699e+01 0 0 0
1210 3 2 5.9999999999999998e-02 -1.1234538933593182e+01 2.2283427356481848e+01 4.8010511816141261e+01 0 0 0
947 2 2 5.9999999999999998e-02 -8.7039128689083434e+00 2.2600685629582483e+01 4.4312243835972779e+01 0 0 0
1238 3 4 1.1500000000000000e-01 -1.3110389784122425e+01 2.3649575176332927e+01 4.4348278903219573e+01 0 0 0
1191 3 9 -3.3000000000000002e-01 -1.2629778925649797e+01 2.2583919831916358e+01 4.6465655372294464e+01 0 0 0
6432 14 1 -1.2000000000000000e-01 -7.0143923492790492e+00 2.3441198588155160e+01 4.7257645622516833e+01 0 0 0
6452 14 2 5.9999999999999998e-02 -6.7808861963807878e+00 2.4280668078785229e+01 4.6690084374307943e+01 0 0 0
1289 3 11 1.9000000000000000e-01 -1.3255083825828464e+01 2.7752833065870604e+01 4.3944104305646228e+01 0 0 0
3992 9 7 -5.0000000000000000e-01 -2.3404592537034201e+01 2.8983816096044116e+01 5.0163962483873377e+01 0 0 0
7317 15 2 5.9999999999999998e-02 -1.9716137371050554e+01 3.4106670155393850e+01 4.5963512012830712e+01 0 0 0
7319 15 2 5.9999999999999998e-02 -2.1011219143261446e+01 3.1406634790358616e+01 4.6204214677711292e+01 0 0 0
7311 15 1 -1.2000000000000000e-01 -2.0490589273692137e+01 3.3447864091093201e+01 4.6217375925386555e+01 0 0 0
7315 15 2 5.9999999999999998e-02 -2.1725017618157857e+01 3.2827853414071193e+01 4.7798295674773840e+01 0 0 0
4004 9 3 -1.1500000000000000e-01 -1.7431448551695031e+01 3.3415859349536937e+01 4.8092665995788849e+01 0 0 0
7316 15 2 5.9999999999999998e-02 -2.0087748714227800e+01 3.3130826615379839e+01 4.8208101104955269e+01 0 0 0
4005 9 3 -1.1500000000000000e-01 -1.7410552388430752e+01 3.2155065157239946e+01 4.8672286937282159e+01 0 0 0
4025 9 4 1.1500000000000000e-01 -1.7300914620013703e+01 3.1179922276965236e+01 4.8238877126635629e+01 0 0 0
3998 9 3 -1.1500000000000000e-01 -2.1066618885406353e+01 2.8786242553588469e+01 4.9431439680879237e+01 0 0 0
4024 9 4 1.1500000000000000e-01 -1.7226922275251908e+01 3.3488799706862906e+01 4.7046302651467542e+01 0 0 0
7312 15 11 1.9000000000000000e-01 -2.0167078244025056e+01 3.1990116684485280e+01 4.5839056347753406e+01 0 0 0
7310 15 1 -1.2000000000000000e-01 -2.0866065710288979e+01 3.3542767690103794e+01 4.7685131930559876e+01 0 0 0
7320 15 2 5.9999999999999998e-02 -1.9211855737625068e+01 3.1762198409076092e+01 4.6276808129596134e+01 0 0 0
1335 3 2 5.9999999999999998e-02 -1.6004944109747441e+01 3.2242930725780937e+01 4.5910628421708815e+01 0 0 0
1334 3 2 5.9999999999999998e-02 -1.5942685151811041e+01 3.0457825129565620e+01 4.5515073385430817e+01 0 0 0
7318 15 2 5.9999999999999998e-02 -2.1157533063621951e+01 3.3830659683130001e+01 4.5472850306121288e+01 0 0 0
3997 9 3 -1.1500000000000000e-01 -1.9718312082714885e+01 2.9194596757261372e+01 4.9506393691749025e+01 0 0 0
4018 9 4 1.1500000000000000e-01 -1.8810930122780952e+01 2.8762592976063992e+01 4.8921511194362608e+01 0 0 0
4020 9 2 5.9999999999999998e-02 -1.7278904523097694e+01 2.9999995096907199e+01 5.0418203748958476e+01 0 0 0
4000 9 3 -1.1500000000000000e-01 -1.7728789018755677e+01 3.2155630339896298e+01 5.0019779659371729e+01 0 0 0
7321 15 9 -3.3000000000000002e-01 -2.0146490233542266e+01 3.1910086287419787e+01 4.4442474109224221e+01 0 0 0
7326 15 2 5.9999999999999998e-02 -2.1155584940836384e+01 3.0169953004753921e+01 4.4237629221964120e+01 0 0 0
4003 9 3 -1.1500000000000000e-01 -1.7559585165476225e+01 3.4649319880211408e+01 4.8720031923230017e+01 0 0 0
7313 15 2 5.9999999999999998e-02 -2.1692811762858586e+01 3.4805339162966206e+01 4.9112621874378434e+01 0 0 0
7309 15 11 1.9000000000000000e-01 -2.1310128979508761e+01 3.4959102249446850e+01 4.8074986478646494e+01 0 0 0
1329 3 1 -1.2000000000000000e-01 -1.5572785303498204e+01 3.1446072321917121e+01 4.5292575927688517e+01 0 0 0
4002 9 3 -1.1500000000000000e-01 -1.7885608112141746e+01 3.4624865200249964e+01 5.0086620994089238e+01 0 0 0
3993 9 3 -1.1500000000000000e-01 -2.2080622350366070e+01 2.9430731636662014e+01 5.0135137660191610e+01 0 0 0
3984 9 2 5.9999999999999998e-02 -2.3462516859387584e+01 3.2482888145921152e+01 4.6866266253003417e+01 0 0 0
1182 3 3 -1.1500000000000000e-01 -8.6514663335028548e+00 2.9536075268434381e+01 4.4180169510860026e+01 0 0 0
1177 3 3 -1.1500000000000000e-01 -9.3734971387602339e+00 3.0724816293943029e+01 4.4138987197758468e+01 0 0 0
7159 15 2 5.9999999999999998e-02 -1.4921382940490544e+01 3.4440669145369519e+01 4.6178194447526813e+01 0 0 0
7156 15 4 1.1500000000000000e-01 -1.2248063082361274e+01 3.4135818293123677e+01 4.6115588328620312e+01 0 0 0
1336 3 2 5.9999999999999998e-02 -1.3541590190451124e+01 3.2122773435805385e+01 4.5327550150053774e+01 0 0 0
1337 3 2 5.9999999999999998e-02 -1.3654776815227981e+01 3.0528514826728902e+01 4.5471783116870704e+01 0 0 0
1181 3 3 -1.1500000000000000e-01 -8.9427017237406563e+00 2.8484098154627269e+01 4.5183563134707761e+01 0 0 0
1330 3 1 -1.2000000000000000e-01 -1.4151532960512419e+01 3.1393002524348400e+01 4.5827086365578566e+01 0 0 0
1180 3 3 -1.1500000000000000e-01 -9.9104873238871054e+00 2.8748269480459285e+01 4.6234279478143129e+01 0 0 0
1340 3 9 -3.3000000000000002e-01 -1.4541665290347565e+01 3.0239227712919195e+01 4.7783064589044770e+01 0 0 0
1338 3 2 5.9999999999999998e-02 -1.4499647098299462e+01 3.2248664276099070e+01 4.7852972368909619e+01 0 0 0
1331 3 11 1.9000000000000000e-01 -1.3951674713063976e+01 3.1504679528095689e+01 4.7350917196456393e+01 0 0 0
1341 3 11 1.9000000000000000e-01 -1.4293598102197448e+01 2.9813174611189833e+01 4.9113467650631222e+01 0 0 0
1339 3 2 5.9999999999999998e-02 -1.2898248137851050e+01 3.1517724740186036e+01 4.7503035482713230e+01 0 0 0
1199 3 4 1.1500000000000000e-01 -1.0615043275641629e+01 3.2030496879865311e+01 4.5306337359801191e+01 0 0 0
1200 3 4 1.1500000000000000e-01 -1.1073525487432708e+01 3.0362730554243615e+01 4.7074910677480311e+01 0 0 0
1179 3 3 -1.1500000000000000e-01 -1.0501510035753197e+01 3.0031188935573557e+01 4.6280819882682877e+01 0 0 0
4111 9 2 5.9999999999999998e-02 -9.5487314844955389e+00 3.2732775392754135e+01 4.9139429901977508e+01 0 0 0
4110 9 2 5.9999999999999998e-02 -8.6067582613150719e+00 3.1203331512158798e+01 4.9624094766296999e+01 0 0 0
1178 3 3 -1.1500000000000000e-01 -1.0196931965657424e+01 3.1021570203906080e+01 4.5253686947407942e+01 0 0 0
1346 3 2 5.9999999999999998e-02 -1.3187469408373847e+01 2.9785695704074357e+01 4.9411818206164973e+01 0 0 0
1345 3 2 5.9999999999999998e-02 -1.4862137201680421e+01 3.0405403224068266e+01 4.9828331406923695e+01 0 0 0
4115 9 4 1.1500000000000000e-01 -1.1569948332392702e+01 3.3306799035073240e+01 4.9555475594135949e+01 0 0 0
4089 9 1 -1.2000000000000000e-01 -9.2439999511595534e+00 3.2099258626726005e+01 4.9974049427371689e+01 0 0 0
4114 9 4 1.1500000000000000e-01 -1.3854695883665496e+01 3.2786895519847135e+01 5.0314311538334273e+01 0 0 0
4095 9 3 -1.1500000000000000e-01 -1.1673884132226258e+01 3.2583487694055300e+01 5.0312322866445818e+01 0 0 0
803 2 2 5.9999999999999998e-02 -7.5902947641889558e+00 3.0308814696453773e+01 4.7305978496790956e+01 0 0 0
7157 15 4 1.1500000000000000e-01 -1.0274314692517105e+01 3.4601409325103845e+01 4.7467499405396737e+01 0 0 0
807 2 2 5.9999999999999998e-02 -7.3982344216237266e+00 3.2890086434382823e+01 4.7060732958632023e+01 0 0 0
802 2 2 5.9999999999999998e-02 -6.8294162035799815e+00 3.0283701548005631e+01 4.8812508871962173e+01 0 0 0
7160 15 4 1.1500000000000000e-01 -1.2533667945027613e+01 3.4565699359127464e+01 4.4135501356855769e+01 0 0 0
1295 3 2 5.9999999999999998e-02 -1.1708103959102274e+01 2.9164548174903608e+01 4.3928739718329943e+01 0 0 0
4389 9 9 -3.3000000000000002e-01 -1.8526233710537724e+01 2.5605244672549361e+01 5.6866747171964903e+01 0 0 0
4402 9 9 -3.3000000000000002e-01 -2.3548371813680863e+01 2.6923851677811925e+01 5.5858315960608692e+01 0 0 0
4385 9 2 5.9999999999999998e-02 -1.6809584407884127e+01 2.3853860247474476e+01 5.6610104909334623e+01 0 0 0
4401 9 2 5.9999999999999998e-02 -2.3186755120230870e+01 2.4787938464198763e+01 5.6059949897914962e+01 0 0 0
4397 9 2 5.9999999999999998e-02 -2.0837157536419131e+01 2.7045655666419837e+01 5.6411219209080549e+01 0 0 0
7010 15 5 5.0000000000000000e-01 -2.0944539970740490e+01 2.2523949749752180e+01 5.4609373643812262e+01 0 0 0
6950 15 7 -5.0000000000000000e-01 -2.2940830072011284e+01 2.3213715382100329e+01 5.0784441156005464e+01 0 0 0
6973 15 8 2.9999999999999999e-01 -2.2554757302870399e+01 2.3308965786092546e+01 5.1703356047193672e+01 0 0 0
7035 15 2 5.9999999999999998e-02 -1.9850129993242707e+01 2.6810254948848453e+01 5.2743614982685159e+01 0 0 0
7033 15 2 5.9999999999999998e-02 -1.8168210705423533e+01 2.4624378185179847e+01 5.3770036469725937e+01 0 0 0
7030 15 2 5.9999999999999998e-02 -2.0838574874506385e+01 2.5197790488555153e+01 5.3843916340988173e+01 0 0 0
7014 15 1 -1.2000000000000000e-01 -1.8908294434524560e+01 2.5054275592070383e+01 5.3054196743700814e+01 0 0 0
7013 15 11 1.9000000000000000e-01 -2.0272982730996610e+01 2.4417207326818421e+01 5.3312549705926955e+01 0 0 0
7034 15 2 5.9999999999999998e-02 -1.9251696518829011e+01 2.6687883906151690e+01 5.4308496119454510e+01 0 0 0
7015 15 1 -1.2000000000000000e-01 -1.8971904745691145e+01 2.6557865716977979e+01 5.3269507432605486e+01 0 0 0
7017 15 9 -3.3000000000000002e-01 -1.6653845258369962e+01 2.7259590740007830e+01 5.3650319927138085e+01 0 0 0
7016 15 11 1.9000000000000000e-01 -1.7740755697484950e+01 2.7369964322199451e+01 5.2765648438915647e+01 0 0 0
7037 15 2 5.9999999999999998e-02 -1.7586494290471606e+01 2.6984262478858035e+01 5.1793418922112458e+01 0 0 0
7032 15 2 5.9999999999999998e-02 -1.8521783039849936e+01 2.4837882314935591e+01 5.2089593328180129e+01 0 0 0
7038 15 5 5.0000000000000000e-01 -1.5493328192551465e+01 2.6633111322593642e+01 5.3344743200872124e+01 0 0 0
7039 15 6 -5.0000000000000000e-01 -1.5441634011104776e+01 2.5910939771268797e+01 5.2380632755507889e+01 0 0 0
7031 15 2 5.9999999999999998e-02 -2.0838031477707709e+01 2.4078281260956803e+01 5.2456205606756257e+01 0 0 0
7012 15 9 -3.3000000000000002e-01 -1.9939622165783550e+01 2.3225505689655417e+01 5.4115187058185612e+01 0 0 0
7036 15 2 5.9999999999999998e-02 -1.8003089199442883e+01 2.8404718658848441e+01 5.2666581750287598e+01 0 0 0
7011 15 6 -5.0000000000000000e-01 -2.2136276986767587e+01 2.2798078355212844e+01 5.4511482445141077e+01 0 0 0
4386 9 2 5.9999999999999998e-02 -1.6342383669984876e+01 2.5267895876023225e+01 5.5737800474311953e+01 0 0 0
4379 9 1 -1.2000000000000000e-01 -1.6296949456231992e+01 2.4785868216796793e+01 5.6728978519984061e+01 0 0 0
4393 9 11 1.9000000000000000e-01 -2.3403503908927270e+01 2.5696657715967344e+01 5.6656078831003590e+01 0 0 0
4391 9 1 -1.2000000000000000e-01 -2.0976849593385165e+01 2.6069765606075919e+01 5.6851623800553767e+01 0 0 0
4396 9 2 5.9999999999999998e-02 -2.1073300876481348e+01 2.5359395517124980e+01 5.6018359222199223e+01 0 0 0
1207 3 2 5.9999999999999998e-02 -1.1637329333328175e+01 2.3734898776314211e+01 5.0460762168009424e+01 0 0 0
4376 9 9 -3.3000000000000002e-01 -1.2672586679705285e+01 2.3982807640606143e+01 5.6887713242757478e+01 0 0 0
6480 14 8 2.9999999999999999e-01 -6.9816481213812551e+00 2.2376665053146258e+01 5.2639861655474434e+01 0 0 0
4381 9 2 5.9999999999999998e-02 -1.4252052353423407e+01 2.2757545165184524e+01 5.6100404579412910e+01 0 0 0
7063 15 8 2.9999999999999999e-01 -1.4826096666995186e+01 2.7666215725511321e+01 5.4891794698251687e+01 0 0 0
6457 14 7 -5.0000000000000000e-01 -7.3217417012242940e+00 2.2221275542608964e+01 5.1699699179596422e+01 0 0 0
4377 9 11 1.9000000000000000e-01 -1.3990443979384031e+01 2.3801755257741146e+01 5.6458764842741118e+01 0 0 0
6459 14 3 -1.1500000000000000e-01 -9.5692950429976893e+00 2.2425376475674291e+01 5.2659499102481327e+01 0 0 0
6490 14 4 1.1500000000000000e-01 -1.4825348961616603e+01 2.2329854121709793e+01 5.2656607591344667e+01 0 0 0
6458 14 3 -1.1500000000000000e-01 -8.6975988129079376e+00 2.1989089977843307e+01 5.1568981642660148e+01 0 0 0
4375 9 2 5.9999999999999998e-02 -1.1654066346585180e+01 2.3264880762078032e+01 5.5248232762879894e+01 0 0 0
7040 15 7 -5.0000000000000000e-01 -1.4550909408127103e+01 2.7045105031204962e+01 5.4199703445001184e+01 0 0 0
4370 9 2 5.9999999999999998e-02 -9.6119968727444096e+00 2.4959723022297069e+01 5.5891338040908245e+01 0 0 0
6481 14 4 1.1500000000000000e-01 -9.1811332047853842e+00 2.2982613516945136e+01 5.3528858632708875e+01 0 0 0
7053 15 3 -1.1500000000000000e-01 -7.4651038862442931e+00 2.7028385506912429e+01 5.1576893404876053e+01 0 0 0
7064 15 4 1.1500000000000000e-01 -1.3263025420558355e+01 2.4893384248088278e+01 5.3115744774037069e+01 0 0 0
7042 15 3 -1.1500000000000000e-01 -1.2584113091768687e+01 2.5732310265776146e+01 5.3364266667553906e+01 0 0 0
7043 15 3 -1.1500000000000000e-01 -1.1224127223270703e+01 2.5682141930342077e+01 5.3172532630077384e+01 0 0 0
7065 15 4 1.1500000000000000e-01 -1.0811941969844401e+01 2.4927532135761194e+01 5.2560923896105166e+01 0 0 0
7044 15 3 -1.1500000000000000e-01 -1.0279306810956001e+01 2.6531276331643486e+01 5.3746725261044844e+01 0 0 0
7068 15 2 5.9999999999999998e-02 -8.6142602934579067e+00 2.5342315993123396e+01 5.3216328227036392e+01 0 0 0
7047 15 1 -1.2000000000000000e-01 -8.8023108649949293e+00 2.6377716545166685e+01 5.3623299731804607e+01 0 0 0
7041 15 3 -1.1500000000000000e-01 -1.3184520817383925e+01 2.6835515915200158e+01 5.4047213430456004e+01 0 0 0
7073 15 4 1.1500000000000000e-01 -7.8045402150797880e+00 2.6103040995452908e+01 5.1125249026489350e+01 0 0 0
7048 15 3 -1.1500000000000000e-01 -7.9691147528182036e+00 2.7369392836541930e+01 5.2818420578284538e+01 0 0 0
7069 15 2 5.9999999999999998e-02 -8.3090330393420597e+00 2.6456703719943498e+01 5.4596827429457953e+01 0 0 0
7066 15 4 1.1500000000000000e-01 -1.0253882025732086e+01 2.8326793862919672e+01 5.5060740414759778e+01 0 0 0
7045 15 3 -1.1500000000000000e-01 -1.0893356292014525e+01 2.7660256534499972e+01 5.4453063860005351e+01 0 0 0
7046 15 3 -1.1500000000000000e-01 -1.2352375886492769e+01 2.7758325759655548e+01 5.4632304111097078e+01 0 0 0
4367 9 11 1.9000000000000000e-01 -1.1694578978363809e+01 2.3061282456326776e+01 5.6351351798854012e+01 0 0 0
882 2 2 5.9999999999999998e-02 -7.1592930300097173e+00 2.3921529919353897e+01 5.4349143557865602e+01 0 0 0
6482 14 4 1.1500000000000000e-01 -1.1507767201360195e+01 2.2442586053409396e+01 5.3431961301212326e+01 0 0 0
4382 9 2 5.9999999999999998e-02 -1.3946024172932768e+01 2.4247492455347434e+01 5.5491917930321712e+01 0 0 0
6460 14 3 -1.1500000000000000e-01 -1.0924034999162423e+01 2.2105243831932377e+01 5.2596904558935364e+01 0 0 0
4374 9 2 5.9999999999999998e-02 -1.2055842827927814e+01 2.2099250632819324e+01 5.6635877021416420e+01 0 0 0
4359 9 2 5.9999999999999998e-02 -7.0655573496377642e+00 2.8457697817401517e+01 5.6412407441023561e+01 0 0 0
4373 9 2 5.9999999999999998e-02 -9.5845927993780737e+00 2.3027554172093254e+01 5.6551203665984559e+01 0 0 0
4371 9 2 5.9999999999999998e-02 -1.0753567686430596e+01 2.5764725693001338e+01 5.6848577735352755e+01 0 0 0
4365 9 1 -1.2000000000000000e-01 -9.9986140738690299e+00 2.5048053407712455e+01 5.6869057688261563e+01 0 0 0
1081 3 3 -1.1500000000000000e-01 -2.3481889767860778e+01 3.3842111147011444e+01 5.4799126510359208e+01 0 0 0
1103 3 4 1.1500000000000000e-01 -2.3458191644760841e+01 3.3715353075975479e+01 5.5874472467556686e+01 0 0 0
3999 9 1 -1.2000000000000000e-01 -1.8004838970672008e+01 3.0751049696732281e+01 5.0657644844186933e+01 0 0 0
4122 9 2 5.9999999999999998e-02 -1.7198875216443085e+01 2.9177804702789675e+01 5.6556508663694345e+01 0 0 0
4098 9 6 -5.0000000000000000e-01 -1.5251986234889552e+01 3.2567938831489613e+01 5.2815590736682388e+01 0 0 0
4099 9 9 -3.3000000000000002e-01 -1.5865212651868937e+01 3.0554864195983846e+01 5.3629965063080704e+01 0 0 0
6989 15 2 5.9999999999999998e-02 -1.9890701115601619e+01 3.4478643427014291e+01 5.3018809561841721e+01 0 -1 0
4102 9 1 -1.2000000000000000e-01 -1.6388714854034696e+01 2.9967597680249728e+01 5.6777024008026068e+01 0 0 0
4119 9 2 5.9999999999999998e-02 -1.7259300021199898e+01 3.1973579685415647e+01 5.6419484091138472e+01 0 0 0
3996 9 3 -1.1500000000000000e-01 -1.9453577492004314e+01 3.0259815622945553e+01 5.0434009791742334e+01 0 0 0
1080 3 3 -1.1500000000000000e-01 -2.2500950619037624e+01 3.3341548453240975e+01 5.3895791948102193e+01 0 0 0
1056 3 9 -3.3000000000000002e-01 -2.1062930584686697e+01 3.3212794780119623e+01 5.6400249345592194e+01 0 0 0
4001 9 3 -1.1500000000000000e-01 -1.7975022838594541e+01 3.3329339029577866e+01 5.0743009519411856e+01 0 0 0
1106 3 4 1.1500000000000000e-01 -2.2055075172793941e+01 3.3228755319257914e+01 5.1768602635323937e+01 0 0 0
4021 9 2 5.9999999999999998e-02 -1.7852576758516577e+01 3.0853332344694369e+01 5.1727925602605183e+01 0 0 0
4022 9 4 1.1500000000000000e-01 -1.8368136286196155e+01 3.3250559868670081e+01 5.1770895254719264e+01 0 0 0
4016 9 4 1.1500000000000000e-01 -2.2563000501220255e+01 3.1077800365831123e+01 5.1370099129790823e+01 0 0 0
4017 9 4 1.1500000000000000e-01 -2.0195363036801730e+01 3.1745302701173571e+01 5.1877239708413477e+01 0 0 0
3994 9 3 -1.1500000000000000e-01 -2.1748390903351400e+01 3.0523996480123103e+01 5.0918664641374939e+01 0 0 0
3995 9 3 -1.1500000000000000e-01 -2.0410362757183584e+01 3.0925635985142968e+01 5.1197247434834814e+01 0 0 0
4101 9 1 -1.2000000000000000e-01 -1.6581338188071243e+01 3.1233883307288067e+01 5.5964652699655645e+01 0 0 0
4100 9 11 1.9000000000000000e-01 -1.6961970546889543e+01 3.0946018418263446e+01 5.4472243270017785e+01 0 0 0
4117 9 2 5.9999999999999998e-02 -1.7802974090316816e+01 3.0225230236357543e+01 5.4438945807853287e+01 0 0 0
1078 3 6 -5.0000000000000000e-01 -1.9789315203604776e+01 3.1630815233311381e+01 5.5440508197598248e+01 0 0 0
1077 3 5 5.0000000000000000e-01 -2.0672202475909490e+01 3.2420632816025567e+01 5.5369923856464375e+01 0 0 0
1102 3 8 2.9999999999999999e-01 -2.1036682788439801e+01 3.1935018987320198e+01 5.3505503457524092e+01 0 0 0
1079 3 7 -5.0000000000000000e-01 -2.1409419838302398e+01 3.2481721316753564e+01 5.4251171049239247e+01 0 0 0
4118 9 2 5.9999999999999998e-02 -1.7335186199640898e+01 3.1928527480882920e+01 5.4305567912037901e+01 0 0 0
1085 3 3 -1.1500000000000000e-01 -2.2725261138629968e+01 3.3635627779489838e+01 5.2524519830123054e+01 0 0 0
4120 9 2 5.9999999999999998e-02 -1.5730053695871687e+01 3.1898639010382489e+01 5.6064397964244378e+01 0 0 0
4121 9 2 5.9999999999999998e-02 -1.5378049368791888e+01 2.9580145921900403e+01 5.6443142710113058e+01 0 0 0
4346 9 2 5.9999999999999998e-02 -7.2814891617753759e+00 3.3101281624672197e+01 5.6437454210795622e+01 0 0 0
4310 9 2 5.9999999999999998e-02 -1.3357978066389389e+01 3.4796127948444337e+01 5.1863389279353370e+01 0 0 0
4347 9 2 5.9999999999999998e-02 -7.1849526996867681e+00 3.3551457378566639e+01 5.4714110668501604e+01 0 0 0
4345 9 2 5.9999999999999998e-02 -8.6200160142484989e+00 3.1234364152604748e+01 5.6005476508574795e+01 0 0 0
4326 9 1 -1.2000000000000000e-01 -1.3584373352657670e+01 3.4292848734998259e+01 5.5733213270314835e+01 0 0 0
4087 9 3 -1.1500000000000000e-01 -8.7460724074977918e+00 3.4387551015165975e+01 5.1132245626435910e+01 0 0 0
4096 9 7 -5.0000000000000000e-01 -1.4242824740958838e+01 3.0668988286581225e+01 5.2226818074537448e+01 0 0 0
4343 9 2 5.9999999999999998e-02 -9.6488801802668469e+00 3.3496624305166925e+01 5.4524127206236514e+01 0 0 0
7070 15 4 1.1500000000000000e-01 -7.7716924647331904e+00 2.8796185771612656e+01 5.4366756579912419e+01 0 0 0
4340 9 1 -1.2000000000000000e-01 -7.1335416777243310e+00 3.2608444663861782e+01 5.5412542208100092e+01 0 0 0
4090 9 3 -1.1500000000000000e-01 -1.0507834594074904e+01 3.1746424095471536e+01 5.0628738112358946e+01 0 0 0
4344 9 2 5.9999999999999998e-02 -8.3749012368792073e+00 3.1327003666950212e+01 5.4238502209334030e+01 0 0 0
4339 9 1 -1.2000000000000000e-01 -8.4489465739696552e+00 3.1882783492224299e+01 5.5165258846214492e+01 0 0 0
4108 9 4 1.1500000000000000e-01 -9.7405677704166518e+00 3.4748159518160890e+01 5.0700025665187013e+01 0 0 0
4094 9 3 -1.1500000000000000e-01 -1.2978865114703337e+01 3.2222645019633546e+01 5.0824448123641986e+01 0 0 0
7067 15 4 1.1500000000000000e-01 -1.2792380806494737e+01 2.8578342747140930e+01 5.5272446476983284e+01 0 0 0
4337 9 9 -3.3000000000000002e-01 -1.0868186423685966e+01 3.1778410796420861e+01 5.5154289657932949e+01 0 0 0
4097 9 5 5.0000000000000000e-01 -1.5128488274743910e+01 3.1401562823402344e+01 5.2916250616312546e+01 0 0 0
4338 9 11 1.9000000000000000e-01 -9.6935701339576319e+00 3.2703978764433543e+01 5.5294162123201609e+01 0 0 0
4331 9 2 5.9999999999999998e-02 -1.4105330436601879e+01 3.4243101992447727e+01 5.4724794973349411e+01 0 0 0
4113 9 4 1.1500000000000000e-01 -1.2179091334687890e+01 2.9358193389454925e+01 5.2268772570273285e+01 0 0 0
4086 9 3 -1.1500000000000000e-01 -8.3378039816910992e+00 3.3012468819949376e+01 5.0921905962046523e+01 0 0 0
4112 9 4 1.1500000000000000e-01 -9.7516653304918854e+00 2.9789316926455900e+01 5.1393152558378119e+01 0 0 0
4336 9 2 5.9999999999999998e-02 -1.2966581797261458e+01 3.1697997471170048e+01 5.4814661757322384e+01 0 0 0
4332 9 2 5.9999999999999998e-02 -1.4416481742055611e+01 3.3950787342014479e+01 5.6368288006637677e+01 0 0 0
4328 9 11 1.9000000000000000e-01 -1.2088305586457983e+01 3.2412316155976207e+01 5.4909982903434695e+01 0 0 0
4334 9 2 5.9999999999999998e-02 -1.1527471632967982e+01 3.4077305004607162e+01 5.6160952927848228e+01 0 0 0
4327 9 1 -1.2000000000000000e-01 -1.2359050065178701e+01 3.3400602182847543e+01 5.5954123208569889e+01 0 0 0
4092 9 3 -1.1500000000000000e-01 -1.1922483562429230e+01 3.0256664934497529e+01 5.1799312715764948e+01 0 0 0
4091 9 3 -1.1500000000000000e-01 -1.0630665637329272e+01 3.0549529323081018e+01 5.1269833220424950e+01 0 0 0
4342 9 2 5.9999999999999998e-02 -9.8052516347605074e+00 3.3279098003921121e+01 5.6217136186740667e+01 0 0 0
4116 9 8 2.9999999999999999e-01 -1.4341683127641721e+01 2.9629237697012659e+01 5.2425440312420207e+01 0 0 0